28
Lattice="3.0625649 5.28709315 -0.00412263 -3.0625649 5.28709315 -0.00412263 0.0 0.11151253 9.66982657" Properties=species:S:1:pos:R:3:DFT_forces:R:3 DFT_energy=-195.31631863 pbc="T T T"
Li      -0.00000000       3.47976914       1.05504879       0.00000000       0.00213322       0.00163771
Li      -0.00000000       0.13463041       0.08941444       0.00000000       0.00099811       0.00113397
Li       0.00000000       0.13323248       4.83208380       0.00000000      -0.00105598      -0.00109486
Li       0.00000000       7.10633186       5.79866108       0.00000000       0.00091246       0.00140889
Ti      -0.00000000       3.48737931       4.83667770       0.00000000      -0.00003540      -0.00122233
Ti      -0.00000000       6.93948400       0.15940853       0.00000000       0.00028137      -0.00085791
Cr      -0.00000000       1.89857274       7.59130067       0.00000000       0.00244570       0.00081007
Cr      -1.49239425       6.20350640       2.76217258       0.00030421      -0.00109874       0.00243248
Cr       1.49239425       6.20350640       2.76217258      -0.00030421      -0.00109874       0.00243248
Sn      -1.50787104       4.48423746       7.59461929       0.00192573      -0.00078513      -0.00037469
Sn       1.50787104       4.48423746       7.59461929      -0.00192573      -0.00078513      -0.00037469
Sn       0.00000000       8.79986419       2.76134026       0.00000000      -0.00100502       0.00026922
O       -1.52332140       4.45758474       3.92598454       0.00167675      -0.00063696       0.00008783
O       -0.00000000       5.18099798       6.32830780       0.00000000       0.00044592      -0.00147148
O        0.00000000       3.58392444       8.71395054       0.00000000       0.00200500       0.00070171
O       -0.00000000       0.14262474       6.62549847       0.00000000       0.00123050      -0.00132708
O        0.00000000       0.06039119       1.86944977       0.00000000      -0.00249789      -0.00148882
O        1.52332140       4.45758474       3.92598454      -0.00167675      -0.00063696       0.00008783
O       -1.32365139       2.80687558       6.34256950       0.00034878       0.00079982      -0.00022450
O        1.32365139       2.80687558       6.34256950      -0.00034878       0.00079982      -0.00022450
O       -0.00000000       8.96306608       8.76956803       0.00000000      -0.00166682      -0.00026269
O        0.00000000       1.84213735       3.87852936       0.00000000      -0.00067269       0.00149838
O       -1.35418617       7.79164089       1.49608720      -0.00106940       0.00028621       0.00111465
O        1.35418617       7.79164089       1.49608720       0.00106940       0.00028621       0.00111465
O       -0.00000000       7.03390681       3.81746154       0.00000000      -0.00222293      -0.00138043
O       -1.53799911       6.28309381       8.73458485      -0.00143075       0.00120633      -0.00142553
O        0.00000000       5.52052157       1.53483180       0.00000000      -0.00083860      -0.00157482
O        1.53799911       6.28309381       8.73458485       0.00143075       0.00120633      -0.00142553
13
Lattice="3.93339064 0.0 0.0 0.0 3.93339064 0.0 0.0 0.0 13.30058806" Properties=species:S:1:pos:R:3:DFT_forces:R:3 DFT_energy=-90.0287271 pbc="T T T"
Ba       1.96669532       1.96669532       2.62063482       0.00000000       0.00000000       0.00321861
Ba       1.96669532       1.96669532      10.67995324       0.00000000       0.00000000      -0.00321861
Y        1.96669532       1.96669532       6.65029403       0.00000000       0.00000000       0.00000000
Mn       0.00000000       0.00000000       4.76729174       0.00000000       0.00000000      -0.00404404
Mn       0.00000000       0.00000000       8.53329632       0.00000000       0.00000000       0.00404404
Tl       0.00000000       0.00000000       0.00000000       0.00000000       0.00000000       0.00000000
O        0.00000000       0.00000000       2.73982285       0.00000000       0.00000000       0.00181110
O        0.00000000       1.96669532       5.23683974       0.00000000       0.00000000       0.00157444
O        1.96669532       0.00000000       5.23683974       0.00000000       0.00000000       0.00157444
O        1.96669532       0.00000000       8.06374832       0.00000000       0.00000000      -0.00157444
O        1.96669532       1.96669532       0.00000000       0.00000000       0.00000000       0.00000000
O        0.00000000       1.96669532       8.06374832       0.00000000       0.00000000      -0.00157444
O        0.00000000       0.00000000      10.56076521       0.00000000       0.00000000      -0.00181110
20
Lattice="-4.21890752 -4.21890752 0.0 0.0 0.0 -8.48870603 4.21890752 -4.21890752 0.0" Properties=species:S:1:pos:R:3:DFT_forces:R:3 DFT_energy=-142.73585734 pbc="T T T"
Ba      -2.10945376      -2.10945376      -2.25913855       0.00000000       0.00000000      -0.01953519
Ba       2.10945376      -2.10945376      -6.22956748       0.00000000       0.00000000       0.01953519
Ba      -2.10945376      -2.10945376      -6.22956748       0.00000000       0.00000000       0.01953519
Ba       2.10945376      -2.10945376      -2.25913855       0.00000000       0.00000000      -0.01953519
Y        0.00000000      -4.21890752       0.00000000       0.00000000       0.00000000       0.00000000
Cu       0.00000000       0.00000000      -4.24435301       0.00000000       0.00000000       0.00000000
W        0.00000000       0.00000000       0.00000000       0.00000000       0.00000000       0.00000000
W        0.00000000      -4.21890752      -4.24435301       0.00000000       0.00000000       0.00000000
O        0.00000000       0.00000000      -1.93647010       0.00000000       0.00000000       0.06395883
O        0.00000000      -4.21890752      -6.24032445       0.00000000       0.00000000       0.07023465
O        0.00000000      -2.27129974      -4.24435301       0.00000000       0.00560269       0.00000000
O        0.00000000      -6.46050725       0.00000000       0.00000000      -0.02242031       0.00000000
O        1.94760778      -4.21890752      -4.24435301       0.00560269       0.00000000       0.00000000
O       -2.24159973      -4.21890752       0.00000000      -0.02242031       0.00000000       0.00000000
O        0.00000000       0.00000000      -6.55223593       0.00000000       0.00000000      -0.06395883
O        0.00000000      -4.21890752      -2.24838158       0.00000000       0.00000000      -0.07023465
O        0.00000000      -6.16651530      -4.24435301       0.00000000      -0.00560269       0.00000000
O        0.00000000      -1.97730779       0.00000000       0.00000000       0.02242031       0.00000000
O       -1.94760778      -4.21890752      -4.24435301      -0.00560269       0.00000000       0.00000000
O        2.24159973      -4.21890752       0.00000000       0.02242031       0.00000000       0.00000000
10
Lattice="0.0 -4.14025473 -4.14025473 4.14025473 0.0 -4.14025473 4.14025473 -4.14025473 0.0" Properties=species:S:1:pos:R:3:DFT_forces:R:3 DFT_energy=-67.87975328 pbc="T T T"
K        6.21038209      -6.21038209      -6.21038209       0.00000000       0.00000000       0.00000000
Sr       2.07012736      -2.07012736      -2.07012736       0.00000000       0.00000000       0.00000000
Ce       0.00000000       0.00000000       0.00000000       0.00000000       0.00000000       0.00000000
Mn       4.14025473      -4.14025473      -4.14025473       0.00000000       0.00000000       0.00000000
O        2.21295382      -4.14025473      -4.14025473      -0.01145744       0.00000000       0.00000000
O        6.06755564      -4.14025473      -4.14025473       0.01145744       0.00000000       0.00000000
O        4.14025473      -6.06755564      -4.14025473       0.00000000      -0.01145744       0.00000000
O        4.14025473      -2.21295382      -4.14025473       0.00000000       0.01145744       0.00000000
O        4.14025473      -4.14025473      -6.06755564       0.00000000       0.00000000      -0.01145744
O        4.14025473      -4.14025473      -2.21295382       0.00000000       0.00000000       0.01145744
20
Lattice="5.7052864 -2.8e-07 -1.7e-07 -2.6e-07 5.57497067 -0.00472373 -5.1e-07 5.56709514 7.94908786" Properties=species:S:1:pos:R:3:DFT_forces:R:3 DFT_energy=-162.72404357 pbc="T T T"
Ca       4.55419049       8.42305410       5.94946170      -0.00159380       0.00109302       0.00140599
Ca       1.15109312       5.63950403       1.97491549       0.00159380       0.00109302       0.00140599
La       1.67430445       5.51382408       5.97665590      -0.00191103       0.00058444       0.00115413
La       4.03098097       2.73027606       2.00211278       0.00191103       0.00058444       0.00115413
Mg       1.42318152       8.35488442       3.96732582       0.00079511      -0.00113381      -0.00166399
Mg       4.28210433      11.13843152       7.94186712      -0.00079511      -0.00113381      -0.00166399
Ta       4.29451143       5.56936528       3.98456225       0.00323677       0.00036472      -0.00077971
Ta       1.41077474       2.78581791       0.01001865      -0.00323677       0.00036472      -0.00077971
O        4.45983731       5.07533508       2.03708018      -0.00018461      -0.00139096      -0.00217617
O        0.21887475       4.46013128       4.36635754       0.00013415      -0.00074443      -0.00087482
O        0.26804455       9.95288323       7.58098772      -0.00270313       0.00167783       0.00133250
O        3.15971725       3.95779035       4.34017793       0.00014369      -0.00025580       0.00127280
O        3.04892434       9.44891833       7.53531225       0.00225964      -0.00026710      -0.00157789
O        1.58196445       3.30871245       1.93062222       0.00051804       0.00007209       0.00190716
O        1.24544932       7.85888342       6.01162421       0.00018461      -0.00139096      -0.00217617
O        5.48641047       1.67658401       0.39181163      -0.00013415      -0.00074443      -0.00087482
O        5.43724156       7.16933473       3.60644451       0.00270313       0.00167783       0.00133250
O        2.54556973       1.17424398       0.36563132      -0.00014369      -0.00025580       0.00127280
O        2.65635993       6.66536733       3.56076508      -0.00225964      -0.00026710      -0.00157789
O        4.12332126       6.09226218       5.90516567      -0.00051804       0.00007209       0.00190716
20
Lattice="6.10366756 -0.0038914 0.0199174 -0.00237262 6.1931178 -0.01993416 0.02953585 -0.02697628 8.65842586" Properties=species:S:1:pos:R:3:DFT_forces:R:3 DFT_energy=-155.20732054 pbc="T T T"
Ba       6.06292551       0.20290043       2.18769305      -0.01063091       0.01483158       0.01050622
Ba       0.06790528       5.95934969       6.47071605       0.01063091      -0.01483158      -0.01050622
Sr       3.13007718       3.34148820       2.18258297       0.02332613       0.01702075      -0.02525853
Sr       3.00075361       2.82076192       6.47582613      -0.02332613      -0.01702075       0.02525853
Pr       3.05183378      -0.00194570       0.00995870       0.00000000       0.00000000       0.00000000
Pr       0.01358162       3.08307076       4.31924585       0.00000000       0.00000000       0.00000000
Hf      -0.00118631       3.09655890      -0.00996708       0.00000000       0.00000000       0.00000000
Hf       3.06660171      -0.01543384       4.33917163       0.00000000       0.00000000       0.00000000
O        1.21451140       1.39244017       8.26214328       0.06852104       0.00682384      -0.00584905
O        1.92329468       4.46375792       4.77465431      -0.04785098      -0.05414466       0.04704871
O        4.91631939       4.76980995       0.39626582      -0.06852104      -0.00682384       0.00584905
O        4.20753611       1.69849220       3.88375479       0.04785098       0.05414466      -0.04704871
O        1.70061334       4.26491156       8.20260517       0.02814177       0.03785542      -0.01451180
O        1.40506732       1.20705164       4.66736666      -0.04176628       0.05723326      -0.02437299
O        4.43021745       1.89733856       0.45580393      -0.02814177      -0.03785542       0.01451180
O        4.72576347       4.95519848       3.99104244       0.04176628      -0.05723326       0.02437299
O        2.58159514       5.90193600       2.30376832       0.01240114      -0.04607830      -0.06195216
O        0.60632728       2.98048366       2.00314861       0.03038120       0.02913904       0.04240415
O        3.54923565       0.26031412       6.35464078      -0.01240114       0.04607830       0.06195216
O        5.52450351       3.18176646       6.65526049      -0.03038120      -0.02913904      -0.04240415
19
Lattice="3.87298264 -0.00036459 -0.00653584 0.00103498 3.89801029 -0.00803639 -1.88620909 -1.67497305 18.79798244" Properties=species:S:1:pos:R:3:DFT_forces:R:3 DFT_energy=-120.67129554 pbc="T T T"
Sr       0.01875702       0.12460898       4.43934394      -0.00110446       0.00067329       0.00512055
Sr       1.96811896       2.09736069      14.35428370       0.00242320       0.00124289      -0.00053992
Ce       1.96412355       2.08957827      10.71868999       0.00021668      -0.00301031      -0.00337271
Pr       0.02435481       0.13251075       8.06966617      -0.00033772      -0.00180893      -0.00213680
Cu       1.95931533       2.07505997       6.20885016      -0.00274809       0.00210992      -0.00886226
Cu       0.02874215       0.14750618      12.54040076       0.00375730      -0.00374649       0.00008174
Cu       1.98694661      -1.67286690      18.77300296      -0.00536715      -0.00324519       0.00590524
Pb       1.94842437       1.95631878       1.75459190      -0.00058297       0.00115356      -0.00303073
Pb       0.03835874       0.26765532      17.01408889       0.00154333      -0.00011025       0.00294136
O        0.02306566       2.07519332       6.42218360      -0.00114933       0.00376173       0.00263495
O        0.02929199       2.09593242      12.32800759       0.00035564       0.00095489       0.00223129
O        1.96476924       0.14798068      12.31491069       0.00224322      -0.00081686       0.00140803
O        1.95860199       0.12639862       6.39919394       0.00063393      -0.00092246       0.00178741
O        0.02674771       2.08472033       9.50658252      -0.00175267       0.00266334      -0.00341084
O        1.96274196       0.13648854       9.50662273       0.00114309      -0.00014739      -0.00291357
O        1.95485256       2.08315108       3.92653614      -0.00078866       0.00356637      -0.00050953
O        0.03246023       0.13381535      14.82342135       0.00130197      -0.00195765      -0.00048072
O        0.01349562       0.39627221       1.80211646       0.00019710      -0.00011918       0.00433392
O        1.97388581       1.83103560      16.93964442       0.00001559      -0.00024129      -0.00118741
20
Lattice="5.98046111 -0.00779178 -0.01198306 2.98333863 5.2156729 0.0252573 2.96719626 1.70702297 9.75667227" Properties=species:S:1:pos:R:3:DFT_forces:R:3 DFT_energy=-140.17876416 pbc="T T T"
Ba       5.98372424       3.44573458       1.22074825       0.00008837      -0.00067463      -0.00081158
Ba       2.97137204       1.70959844       6.09334045      -0.00070914      -0.00005467       0.00037656
Ba       5.94948535       3.46240429       8.53666280       0.00004728       0.00033278      -0.00031930
Sr       8.92260020       5.26444837       3.70578117      -0.00018579      -0.00127143      -0.00022163
Ca       2.98937605       5.21600135       0.04786542      -0.00030610      -0.00076800       0.00003621
Ca       5.95227563       3.45990528       4.85573222      -0.00097238      -0.00128205       0.00075752
W        8.94442506       5.18120479       7.30391491       0.00103580       0.00047708       0.00290115
W        2.98772596       1.73109942       2.46586696      -0.00142058      -0.00074031      -0.00306013
O        2.78584321       3.21226378       1.19652150       0.00408657       0.00015619      -0.00356041
O        5.80083867       1.44356714       5.99805838      -0.00109531       0.00039461      -0.00258179
O        9.09381926       3.67123564       8.55247646      -0.00062617       0.00514790       0.00112460
O        6.29150730       5.45233637       3.72730512      -0.00179175      -0.00156162       0.00024839
O        4.07356798       2.93458155       3.57651902       0.00029850      -0.00052150       0.00095361
O       10.17348265       6.23278375       8.42212204      -0.00374094      -0.00205235      -0.00108621
O        1.81780209       0.64148297       1.33224217       0.00169744       0.00179527       0.00059805
O        7.71759709       4.13424786       6.19616058       0.00263325       0.00217967       0.00086224
O        7.36370673       2.24499999       3.45898829       0.00014030       0.00005802      -0.00151601
O        7.43440223       5.89194287       8.33584995      -0.00068125      -0.00185780       0.00004671
O        4.57943978       1.08554114       1.50050163       0.00050457       0.00058339       0.00486477
O        4.49480311       4.49188217       6.31309172       0.00099730      -0.00034054       0.00038725
40
Lattice="7.75761011 0.00528933 0.0 -0.03743832 7.75752158 0.0 0.0 0.0 7.79389631" Properties=species:S:1:pos:R:3:DFT_forces:R:3 DFT_energy=-305.11043364 pbc="T T T"
Sr       3.87880505       0.00264467       2.05359597       0.00000000       0.00000000       0.00012534
Sr       3.87880505       0.00264467       5.74030034       0.00000000       0.00000000      -0.00012534
Sr      -0.01871916       3.87876079       2.05359597       0.00000000       0.00000000       0.00012534
Sr       0.00000000       0.00000000       2.06193497       0.00000000       0.00000000      -0.00254685
Sr      -0.01871916       3.87876079       5.74030034       0.00000000       0.00000000      -0.00012534
Sr       0.00000000       0.00000000       5.73196134       0.00000000       0.00000000       0.00254685
La       3.86008590       3.88140545       2.05163323       0.00000000       0.00000000       0.00112832
La       3.86008590       3.88140545       5.74226308       0.00000000       0.00000000      -0.00112832
Ta       5.83364202       1.91868956       0.00000000       0.00132076      -0.00131351       0.00000000
Ta       1.88652977       5.84412135       0.00000000      -0.00132076       0.00131351       0.00000000
Al       5.78221088       5.81414649       0.00000000       0.00036335       0.00036535       0.00000000
Al       5.82421602       1.92806379       3.89694816       0.00115615      -0.00114980       0.00000000
Al       5.79856962       5.83059557       3.89694816       0.00003445       0.00003464       0.00000000
Al       1.93796091       1.94866442       0.00000000      -0.00036335      -0.00036535       0.00000000
Al       1.92160217       1.93221534       3.89694816      -0.00003445      -0.00003464       0.00000000
Al       1.89595577       5.83474712       3.89694816      -0.00115615       0.00114980       0.00000000
O        3.88077797       5.77809786       0.00000000      -0.00220335      -0.00050161       0.00000000
O        3.83939382       1.98471305       0.00000000       0.00220335       0.00050161       0.00000000
O        3.84114861       5.75683572       3.89694816       0.00099871      -0.00099797       0.00000000
O        3.87902318       2.00597519       3.89694816      -0.00099871       0.00099797       0.00000000
O        7.68273921       5.81283074       0.00000000       0.00092888      -0.00075519       0.00000000
O        0.03743258       1.94998017       0.00000000      -0.00092888       0.00075519       0.00000000
O       -0.02703180       5.80596216       3.89694816      -0.00087723       0.00028937       0.00000000
O        7.74720359       1.95684875       3.89694816       0.00087723      -0.00028937       0.00000000
O        5.78208121       1.96996716       1.99068621       0.00140660      -0.00139888      -0.00125391
O        5.73701437       5.76870035       1.95281660      -0.00078410      -0.00078843      -0.00058668
O        5.78208121       1.96996716       5.80321010       0.00140660      -0.00139888       0.00125391
O        5.73701437       5.76870035       5.84107971      -0.00078410      -0.00078843       0.00058668
O        1.98315742       1.99411056       1.95281660       0.00078410       0.00078843      -0.00058668
O        1.93809058       5.79284375       1.99068621      -0.00140660       0.00139888      -0.00125391
O        1.98315742       1.99411056       5.84107971       0.00078410       0.00078843       0.00058668
O        1.93809058       5.79284375       5.80321010      -0.00140660       0.00139888       0.00125391
O        5.75663556       3.91254387       0.00000000      -0.00048947      -0.00220608       0.00000000
O        5.77042737       7.71463874       0.00000000      -0.00076030       0.00092470       0.00000000
O        5.73559202       3.87279800       3.89694816      -0.00100346       0.00099320       0.00000000
O        5.80602298       0.00494685       3.89694816       0.00029420      -0.00087562       0.00000000
O        1.96353623       3.85026704       0.00000000       0.00048947       0.00220608       0.00000000
O        1.94974442       0.04817217       0.00000000       0.00076030      -0.00092470       0.00000000
O        1.98457977       3.89001291       3.89694816       0.00100346      -0.00099320       0.00000000
O        1.91414881       7.75786406       3.89694816      -0.00029420       0.00087562       0.00000000
10
Lattice="0.0 -4.13073411 -4.13073411 4.13073411 0.0 -4.13073411 4.13073411 -4.13073411 0.0" Properties=species:S:1:pos:R:3:DFT_forces:R:3 DFT_energy=-83.35554759 pbc="T T T"
Ba       2.06536705      -2.06536705      -2.06536705       0.00000000       0.00000000       0.00000000
Ca       6.19610116      -6.19610116      -6.19610116       0.00000000       0.00000000       0.00000000
Hf       0.00000000       0.00000000       0.00000000       0.00000000       0.00000000       0.00000000
Nb       4.13073411      -4.13073411      -4.13073411       0.00000000       0.00000000       0.00000000
O        2.08001208      -4.13073411      -4.13073411      -0.02540154       0.00000000       0.00000000
O        6.18145614      -4.13073411      -4.13073411       0.02540154       0.00000000       0.00000000
O        4.13073411      -6.18145614      -4.13073411       0.00000000      -0.02540154       0.00000000
O        4.13073411      -2.08001208      -4.13073411       0.00000000       0.02540154       0.00000000
O        4.13073411      -4.13073411      -6.18145614       0.00000000       0.00000000      -0.02540154
O        4.13073411      -4.13073411      -2.08001208       0.00000000       0.00000000       0.02540154
28
Lattice="5.96036613 -0.0044711 0.00118273 -2.9825166 5.15116011 0.0072198 -0.02365801 -0.0706087 9.96893953" Properties=species:S:1:pos:R:3:DFT_forces:R:3 DFT_energy=-213.41717527 pbc="T T T"
Li       2.96560311       1.68106487       1.04143032       0.00013073      -0.00297440       0.00310654
Li       2.98953901       5.12225140       0.04896366      -0.00273519       0.00067437       0.00920555
Li       5.89850273      -0.00914711       5.01364409       0.00068698       0.00045827       0.01507891
Li      -0.03147755       3.33932808       6.03311253      -0.00080832       0.00107136       0.00335688
Ti       1.60787824       0.61660818       7.77467372       0.00100088       0.00029906      -0.00199045
Ti       2.79915656       3.31810485       7.78449877      -0.00420505      -0.00030290      -0.00223921
Ti      -1.40591896       4.43228969       2.92843967       0.00126549       0.00074473      -0.00205203
Mn       3.00954184       1.72037403       5.02546831       0.00058937      -0.00091009       0.00422962
Mn       0.01055733       3.48570874       0.05954767      -0.00066664      -0.00022322      -0.00708237
V        4.54026688       0.93168212       7.89402812      -0.00222372       0.00275819      -0.00242755
V        1.52277307       4.16319617       2.84527951       0.00142736      -0.00088598       0.00411113
V       -0.14803885       1.73046854       2.79132439      -0.00055640       0.00024456      -0.00722377
O        1.35240385       0.84126174       3.92618708       0.00047648      -0.00303249      -0.00222449
O        1.58553146       2.42355492       6.71564317       0.00217878       0.00158555       0.00076375
O        2.92495966       1.66991225       8.89136193      -0.00005686       0.00062313      -0.00234614
O       -0.00087525      -0.03201455       6.83747815      -0.00023570       0.00118062       0.00327329
O       -2.96551392       5.11624036       1.87390798       0.00248625      -0.00238434       0.00087779
O        3.02019103       3.53228590       3.92679739       0.00022840       0.00020267      -0.00302793
O        3.01767899       0.08586139       6.72736756      -0.00084948       0.00261137       0.00156215
O        4.28675959       2.45837652       6.71852488      -0.00125125       0.00051660       0.00004914
O       -1.59525627       4.30105759       8.91632852      -0.00227683       0.00306052      -0.00185905
O        4.51920793       0.70275124       3.86904275       0.00035124      -0.00194748      -0.00147967
O       -1.31031024       2.56372505       1.72175106       0.00288148      -0.00256449      -0.00166207
O       -0.04935243       4.96562555       1.72730847       0.00141114      -0.00159271      -0.00222247
O       -0.03266054       3.39927976       3.93321171       0.00097412      -0.00119618      -0.00386436
O       -0.09016128       1.55196176       8.94148353      -0.00074250       0.00137381      -0.00171829
O        1.37593794       2.69104318       1.74676014       0.00087902      -0.00103469       0.00119921
O        1.57289048       4.29657622       8.90654501      -0.00035976       0.00164418      -0.00339409
10
Lattice="0.0 4.17913354 4.17913354 4.17913354 0.0 4.17913354 4.17913354 4.17913354 0.0" Properties=species:S:1:pos:R:3:DFT_forces:R:3 DFT_energy=-58.72815746 pbc="T T T"
Ba       2.08956677       2.08956677       2.08956677       0.00000000       0.00000000       0.00000000
Na       6.26870031       6.26870031       6.26870031       0.00000000       0.00000000       0.00000000
Ca       0.00000000       0.00000000       0.00000000       0.00000000       0.00000000       0.00000000
Mn       4.17913354       4.17913354       4.17913354       0.00000000       0.00000000       0.00000000
O        4.17913354       2.28973657       4.17913354       0.00000000       0.00069015       0.00000000
O        4.17913354       6.06853051       4.17913354       0.00000000      -0.00069015       0.00000000
O        6.06853051       4.17913354       4.17913354      -0.00069015       0.00000000       0.00000000
O        2.28973657       4.17913354       4.17913354       0.00069015       0.00000000       0.00000000
O        4.17913354       4.17913354       2.28973657       0.00000000       0.00000000       0.00069015
O        4.17913354       4.17913354       6.06853051       0.00000000       0.00000000      -0.00069015
20
Lattice="6.0252568 -0.33678176 0.0 -0.87713677 5.97057557 0.0 0.0 0.0 7.63272369" Properties=species:S:1:pos:R:3:DFT_forces:R:3 DFT_energy=-149.73442089 pbc="T T T"
K        5.91668857      -0.23757290       3.81636184      -0.00290761       0.00265695       0.00000000
Na       2.17276065       3.18360136       0.00000000      -0.00339147       0.00309910       0.00000000
Ti       5.36381773       2.81491001       5.74322829       0.00356883       0.00200666      -0.00042637
Ti       2.82686047       0.03861614       5.74322829      -0.00167766      -0.00373479      -0.00042637
Ti       5.36381773       2.81491001       1.88949540       0.00356883       0.00200666       0.00042637
Ti       2.82686047       0.03861614       1.88949540      -0.00167766      -0.00373479       0.00042637
Bi       5.49640148       0.14648241       0.00000000       0.00276939      -0.00253064       0.00000000
Bi       1.97616468       3.36324934       3.81636184      -0.00067744       0.00061904       0.00000000
O        0.98627578       4.26780266       5.67729415      -0.00075678       0.00069154      -0.00060769
O        4.53829030       1.02199747       5.78652919      -0.00182971       0.00167198       0.00239651
O        0.98627578       4.26780266       1.95542954      -0.00075678       0.00069154       0.00060769
O        4.53829030       1.02199747       1.84619450      -0.00182971       0.00167198      -0.00239651
O       -0.24364733       2.74680431       0.00000000      -0.00072357      -0.00163647       0.00000000
O        2.39053423       5.62949463       0.00000000       0.00156479       0.00086777       0.00000000
O       -0.24539705       2.88359737       3.81636184       0.00221527       0.00008204       0.00000000
O        2.25413785       5.61893847       3.81636184       0.00011746      -0.00221367       0.00000000
O        4.03113389       3.93298351       5.77686516       0.00095411      -0.00017271       0.00219873
O        1.59349612       1.26537893       5.77686516       0.00025780      -0.00093472       0.00219873
O        4.03113389       3.93298351       1.85585853       0.00095411      -0.00017271      -0.00219873
O        1.59349612       1.26537893       1.85585853       0.00025780      -0.00093472      -0.00219873
144
Lattice="0.00144641 0.00606078 10.75222583 11.37283948 0.01586833 0.00153166 -5.66488769 16.14165865 -5.36728627" Properties=species:S:1:pos:R:3:DFT_forces:R:3 DFT_energy=-1028.2120782 pbc="T T T"
La       0.10599009       1.79627920       2.66475206      -0.00521263       0.02495060      -0.05929482
La      -2.73058363       9.84767753       0.04050007       0.00967041      -0.04639040      -0.02835764
La       2.98189667       9.88677186       0.01810335       0.02808312      -0.00269295      -0.03097911